export PBS_NODEFILE=/scratch/alolinco/289089/YhVcl7Nz0O
export TMPDIR=/scratch/alolinco/289089
 argument  1 = tomfebn_opt.nw
                                         
                                         
 
 
              Northwest Computational Chemistry Package (NWChem) 6.6
              ------------------------------------------------------
 
 
                    Environmental Molecular Sciences Laboratory
                       Pacific Northwest National Laboratory
                                Richland, WA 99352
 
                              Copyright (c) 1994-2015
                       Pacific Northwest National Laboratory
                            Battelle Memorial Institute
 
             NWChem is an open-source computational chemistry package
                        distributed under the terms of the
                      Educational Community License (ECL) 2.0
             A copy of the license is included with this distribution
                              in the LICENSE.TXT file
 
                                  ACKNOWLEDGMENT
                                  --------------

            This software and its documentation were developed at the
            EMSL at Pacific Northwest National Laboratory, a multiprogram
            national laboratory, operated for the U.S. Department of Energy
            by Battelle under Contract Number DE-AC05-76RL01830. Support
            for this work was provided by the Department of Energy Office
            of Biological and Environmental Research, Office of Basic
            Energy Sciences, and the Office of Advanced Scientific Computing.


           Job information
           ---------------

    hostname        = condo054
    program         = /work/LAS/twindus-lab/nwchem/6.6-intel/bin/nwchem
    date            = Thu May 17 12:30:27 2018

    compiled        = Tue_Oct_24_08:26:58_2017
    source          = /home/weverett/build/nwchem/nwchem-6.6-intel
    nwchem branch   = 6.6
    nwchem revision = 27746
    ga revision     = 10594
    input           = tomfebn_opt.nw
    prefix          = tomfe_opt1.
    data base       = ./tomfe_opt1.db
    status          = startup
    nproc           =        4
    time left       =     -1s



           Memory information
           ------------------

    heap     =   13107196 doubles =    100.0 Mbytes
    stack    =   13107201 doubles =    100.0 Mbytes
    global   =   26214400 doubles =    200.0 Mbytes (distinct from heap & stack)
    total    =   52428797 doubles =    400.0 Mbytes
    verify   = yes
    hardfail = no 


           Directory information
           ---------------------
 
  0 permanent = .
  0 scratch   = .
 
 
 
 
                                NWChem Input Module
                                -------------------
 
 
                                      ToMFeBn
                                      -------

 Scaling coordinates for geometry "geometry" by  1.889725989
 (inverse scale =  0.529177249)

 C1  symmetry detected

          ------
          auto-z
          ------
  autoz: The atoms group into disjoint clusters
 cluster   1:    1    2    3    4    5    6    7    8    9   10   11 
                12   13   14   15   16   17   18   19   20   21   22 
                23   24   25   26   27   28   29   30   31   32   33 
                34   35   36   37   38   39   40   41   42   43   44 
                45   46   47   48   49   50   51   52   53   54   55 
                56   57   58   59   60   61   62   63   64   65   66 
                67   68   69   70   71   72 
 cluster   2:   73   74   75   76   77   78   79   80   81   82   83 
                84   85   86   87   88   89   90   91   92   93   94 
                95   96   97   98   99  100  101  102  103  104  105 
               106  107  108  109  110  111  112  113  114  115  116 
               117  118  119  120  121  122  123  124  125  126  127 
               128  129  130  131  132  133  134  135  136  137  138 
               139  140  141  142  143  144 
 Connecting clusters   1   2 via atoms   26  137 r = 2.42
  autoz: regenerating connections with new bonds
 
 
                             Geometry "geometry" -> ""
                             -------------------------
 
 Output coordinates in angstroms (scale by  1.889725989 to convert to a.u.)
 
  No.       Tag          Charge          X              Y              Z
 ---- ---------------- ---------- -------------- -------------- --------------
    1 Fe                  26.0000     0.65400422     4.82633903     0.48395273
    2 O                    8.0000    -0.27042043     2.43730487    -2.77313032
    3 O                    8.0000    -2.99925388     5.68195698    -1.32966678
    4 O                    8.0000    -2.42396362     2.13405192     1.30189083
    5 N                    7.0000     0.76007715     3.73636945    -1.27713234
    6 N                    7.0000    -1.08769636     5.77071626    -0.21041316
    7 N                    7.0000    -0.54970271     3.34248430     1.34154436
    8 C                    6.0000     2.02631231     5.82200056     1.66822113
    9 C                    6.0000     3.35382078     5.84515246     0.97787750
   10 C                    6.0000     3.65960361     6.81531249     0.02390423
   11 H                    1.0000     3.00993895     7.47700782    -0.18063692
   12 C                    6.0000     4.86545558     6.84753619    -0.62866062
   13 H                    1.0000     5.03825198     7.52384497    -1.27247918
   14 C                    6.0000     5.83217273     5.89373319    -0.34958098
   15 H                    1.0000     6.66993223     5.90900400    -0.79723638
   16 C                    6.0000     5.55614891     4.92924792     0.58410569
   17 H                    1.0000     6.21296752     4.27442925     0.78903466
   18 C                    6.0000     4.34092369     4.89321467     1.23215538
   19 H                    1.0000     4.17131381     4.20594857     1.86639297
   20 C                    6.0000     1.82583715     3.44487920    -2.28513675
   21 C                    6.0000     2.12168750     4.72240443    -3.05055272
   22 H                    1.0000     1.30082458     5.04511134    -3.47775774
   23 H                    1.0000     2.45794324     5.40302336    -2.43265240
   24 H                    1.0000     2.80084281     4.54138444    -3.73632207
   25 C                    6.0000     1.14650958     2.37377283    -3.14651031
   26 H                    1.0000     1.51957945     1.47845617    -2.95363917
   27 H                    1.0000     1.26437193     2.57012705    -4.10968749
   28 C                    6.0000    -0.34097933     3.19484923    -1.65186155
   29 C                    6.0000    -1.95343286     5.02855587    -0.80044041
   30 C                    6.0000    -2.84623755     7.09760922    -0.97512171
   31 H                    1.0000    -2.92217681     7.67309284    -1.77804804
   32 H                    1.0000    -3.53466962     7.37339077    -0.31867271
   33 C                    6.0000    -1.46319435     7.19063372    -0.37464706
   34 C                    6.0000    -0.44228911     7.80925742    -1.34068589
   35 H                    1.0000     0.43636602     7.84840311    -0.90984263
   36 H                    1.0000    -0.38543502     7.25893482    -2.15098419
   37 H                    1.0000    -0.72339586     8.70887669    -1.58651508
   38 C                    6.0000    -1.47767694     7.91930664     0.97116112
   39 H                    1.0000    -2.05926766     7.43742989     1.59625637
   40 H                    1.0000    -0.56441099     7.95959673     1.32914171
   41 H                    1.0000    -1.81750890     8.83031462     0.84555602
   42 C                    6.0000    -1.54018723     2.93456681     0.64825624
   43 C                    6.0000    -1.84300162     1.87146019     2.63512089
   44 H                    1.0000    -2.50761641     2.04475843     3.34939493
   45 H                    1.0000    -1.52973490     0.93555689     2.70585518
   46 C                    6.0000    -0.66050538     2.85758561     2.73425874
   47 C                    6.0000     0.62019849     2.15539894     3.13752389
   48 H                    1.0000     0.83076470     1.45718501     2.48195573
   49 H                    1.0000     1.35606230     2.80188419     3.16796325
   50 H                    1.0000     0.50088990     1.75040749     4.02347221
   51 C                    6.0000    -0.96171789     4.03210462     3.65043392
   52 H                    1.0000    -0.21526395     4.67052411     3.61802958
   53 H                    1.0000    -1.78576621     4.47463130     3.35591245
   54 H                    1.0000    -1.06769491     3.70774646     4.57277099
   55 C                    6.0000    -2.97222545     2.58997672    -1.69204272
   56 C                    6.0000    -3.69666458     3.16387388    -2.75183167
   57 H                    1.0000    -3.50485136     4.05767569    -3.00827835
   58 C                    6.0000    -4.68211774     2.46201281    -3.43575238
   59 H                    1.0000    -5.15800616     2.87982064    -4.14216078
   60 C                    6.0000    -4.97428316     1.14148542    -3.08289574
   61 H                    1.0000    -5.66176060     0.66260438    -3.53065818
   62 C                    6.0000    -4.25337624     0.54688511    -2.07725539
   63 H                    1.0000    -4.42308842    -0.35972852    -1.84615655
   64 C                    6.0000    -3.27780913     1.26053596    -1.39407266
   65 H                    1.0000    -2.79832434     0.82731033    -0.69799037
   66 C                    6.0000     3.07343530     2.92527013    -1.59285773
   67 H                    1.0000     3.46347644     3.63666768    -1.04322457
   68 H                    1.0000     2.83625222     2.16729866    -1.01851861
   69 H                    1.0000     3.72836944     2.64159035    -2.26999865
   70 B                    5.0000    -1.79864631     3.38977605    -0.91531005
   71 H                    1.0000     1.71779558     6.74846187     1.83220264
   72 H                    1.0000     2.11061785     5.36400905     2.54233723
   73 Fe                  26.0000     0.20342248    -4.52296927    -0.87912777
   74 O                    8.0000    -3.00347236    -3.79214991     1.68582521
   75 O                    8.0000     1.38273110    -4.58378451     3.07693735
   76 O                    8.0000     0.02620106    -0.79327323     1.02424218
   77 N                    7.0000    -1.68088384    -4.51820041     0.05153846
   78 N                    7.0000     1.12013099    -4.99211813     0.90872409
   79 N                    7.0000     0.39057671    -2.48438091    -0.36626365
   80 C                    6.0000     0.49096805    -5.12735371    -2.83596638
   81 C                    6.0000     1.16408592    -6.45108985    -2.87536141
   82 C                    6.0000     0.46248274    -7.62762469    -2.57640568
   83 H                    1.0000    -0.46513590    -7.58376963    -2.37530429
   84 C                    6.0000     1.11558318    -8.86245852    -2.57302792
   85 H                    1.0000     0.62327939    -9.64930774    -2.37312824
   86 C                    6.0000     2.45151370    -8.95794140    -2.85477240
   87 H                    1.0000     2.88607226    -9.80302553    -2.84833390
   88 C                    6.0000     3.15606880    -7.80870576    -3.14440224
   89 H                    1.0000     4.08203144    -7.86575047    -3.34384516
   90 C                    6.0000     2.53956805    -6.58918849    -3.14915487
   91 H                    1.0000     3.05334993    -5.81340053    -3.33967635
   92 C                    6.0000    -3.05614658    -4.79071890    -0.45612251
   93 C                    6.0000    -3.15385315    -6.20948170    -0.97667155
   94 H                    1.0000    -2.57914056    -6.30874947    -1.76289961
   95 H                    1.0000    -2.86927773    -6.83459670    -0.27667065
   96 H                    1.0000    -4.08110301    -6.40214801    -1.22839544
   97 C                    6.0000    -3.88620430    -4.57680049     0.80514405
   98 H                    1.0000    -4.12330042    -5.44268257     1.22248383
   99 H                    1.0000    -4.71657371    -4.07827911     0.60124465
  100 C                    6.0000    -1.76237816    -3.91574565     1.18693904
  101 C                    6.0000     0.71612197    -4.33779411     1.93499916
  102 C                    6.0000     2.37718223    -5.61585654     2.78170279
  103 H                    1.0000     3.27808491    -5.32742822     3.07773293
  104 H                    1.0000     2.14904514    -6.46288667     3.23857854
  105 C                    6.0000     2.34128426    -5.79417583     1.26420956
  106 C                    6.0000     2.14555751    -7.24465804     0.84459720
  107 H                    1.0000     2.12253748    -7.30120678    -0.13415200
  108 H                    1.0000     2.88790562    -7.78271750     1.18641835
  109 H                    1.0000     1.29354266    -7.57688536     1.20569899
  110 C                    6.0000     3.52782617    -5.18067468     0.58326901
  111 H                    1.0000     3.46174203    -5.32726186    -0.38280931
  112 H                    1.0000     3.55022142    -4.21947672     0.76924811
  113 H                    1.0000     4.34775077    -5.59450692     0.92322185
  114 C                    6.0000    -0.75652324    -2.65311141     3.41859526
  115 C                    6.0000    -1.59525801    -3.34005245     4.29943765
  116 H                    1.0000    -2.03695562    -4.12648655     4.00169055
  117 C                    6.0000    -1.80086052    -2.89996179     5.61087726
  118 H                    1.0000    -2.40154877    -3.36668165     6.18008872
  119 C                    6.0000    -1.12661682    -1.78519004     6.08005268
  120 H                    1.0000    -1.25599568    -1.48963235     6.97392303
  121 C                    6.0000    -0.27797375    -1.11229248     5.25293297
  122 H                    1.0000     0.19617203    -0.35334461     5.57122409
  123 C                    6.0000    -0.10672892    -1.54087272     3.93488927
  124 H                    1.0000     0.47907546    -1.05277619     3.36963995
  125 C                    6.0000     0.01943339    -2.13134735     0.80082887
  126 C                    6.0000     0.47333886    -0.16441497    -0.20164688
  127 H                    1.0000    -0.23266910     0.42511493    -0.56572439
  128 H                    1.0000     1.28584096     0.37585753    -0.03700554
  129 C                    6.0000     0.77423272    -1.30400637    -1.17383649
  130 C                    6.0000     2.22395233    -1.40323499    -1.55743935
  131 H                    1.0000     2.77581930    -1.43913549    -0.74770070
  132 H                    1.0000     2.36819474    -2.21967212    -2.07862627
  133 H                    1.0000     2.47784599    -0.62817041    -2.10026693
  134 C                    6.0000    -0.11567040    -1.26103305    -2.42165344
  135 H                    1.0000    -0.03273364    -2.10451275    -2.91262966
  136 H                    1.0000    -1.04669635    -1.13182154    -2.15670686
  137 H                    1.0000     0.16728323    -0.52404080    -3.00025486
  138 C                    6.0000    -3.38050710    -3.76467240    -1.53933685
  139 H                    1.0000    -3.29601858    -2.86192839    -1.16858927
  140 H                    1.0000    -2.75693456    -3.86885868    -2.28496007
  141 H                    1.0000    -4.29690261    -3.90437256    -1.85640033
  142 B                    5.0000    -0.47303442    -3.22014167     1.93929769
  143 H                    1.0000    -0.38456260    -5.18590853    -3.29599024
  144 H                    1.0000     1.04407028    -4.45804247    -3.31083443
 
      Atomic Mass 
      ----------- 
 
      Fe                55.934900
      O                 15.994910
      N                 14.003070
      C                 12.000000
      H                  1.007825
      B                 11.009310
 

 Effective nuclear repulsion energy (a.u.)   14407.7029076308

            Nuclear Dipole moment (a.u.) 
            ----------------------------
        X                 Y               Z
 ---------------- ---------------- ----------------
    -0.0000000000    -0.0000000000    -0.0000000000
 


                                Z-matrix (autoz)
                                -------- 

 Units are Angstrom for bonds and degrees for angles
 
      Type          Name      I     J     K     L     M      Value
      ----------- --------  ----- ----- ----- ----- ----- ----------
    1 Stretch                  1     5                       2.07381
    2 Stretch                  1     6                       2.09941
    3 Stretch                  1     7                       2.09433
    4 Stretch                  1     8                       2.06811
    5 Stretch                  2    25                       1.46668
    6 Stretch                  2    28                       1.35503
    7 Stretch                  3    29                       1.34192
    8 Stretch                  3    30                       1.46737
    9 Stretch                  4    42                       1.35982
   10 Stretch                  4    43                       1.47783
   11 Stretch                  5    20                       1.49562
   12 Stretch                  5    28                       1.28296
   13 Stretch                  6    29                       1.28391
   14 Stretch                  6    33                       1.47788
   15 Stretch                  7    42                       1.27597
   16 Stretch                  7    46                       1.47887
   17 Stretch                  8     9                       1.49646
   18 Stretch                  8    71                       0.99015
   19 Stretch                  8    72                       0.99043
   20 Stretch                  9    10                       1.39455
   21 Stretch                  9    18                       1.39471
   22 Stretch                 10    11                       0.94960
   23 Stretch                 10    12                       1.37148
   24 Stretch                 12    13                       0.94961
   25 Stretch                 12    14                       1.38642
   26 Stretch                 14    15                       0.94998
   27 Stretch                 14    16                       1.37047
   28 Stretch                 16    17                       0.94984
   29 Stretch                 16    18                       1.37769
   30 Stretch                 18    19                       0.95045
   31 Stretch                 20    21                       1.51837
   32 Stretch                 20    25                       1.53321
   33 Stretch                 20    66                       1.51847
   34 Stretch                 21    22                       0.98003
   35 Stretch                 21    23                       0.97883
   36 Stretch                 21    24                       0.98199
   37 Stretch                 25    26                       0.98892
   38 Stretch                 25    27                       0.99003
   39 Stretch                 26   137                       2.41679
   40 Stretch                 28    70                       1.64478
   41 Stretch                 29    70                       1.65008
   42 Stretch                 30    31                       0.99078
   43 Stretch                 30    32                       0.99041
   44 Stretch                 30    33                       1.51064
   45 Stretch                 33    34                       1.53563
   46 Stretch                 33    38                       1.53048
   47 Stretch                 34    35                       0.97938
   48 Stretch                 34    36                       0.98116
   49 Stretch                 34    37                       0.97405
   50 Stretch                 38    39                       0.98041
   51 Stretch                 38    40                       0.98175
   52 Stretch                 38    41                       0.98041
   53 Stretch                 42    70                       1.64887
   54 Stretch                 43    44                       0.99093
   55 Stretch                 43    45                       0.98947
   56 Stretch                 43    46                       1.54291
   57 Stretch                 46    47                       1.51522
   58 Stretch                 46    51                       1.51974
   59 Stretch                 47    48                       0.98062
   60 Stretch                 47    49                       0.97998
   61 Stretch                 47    50                       0.98141
   62 Stretch                 51    52                       0.98276
   63 Stretch                 51    53                       0.98063
   64 Stretch                 51    54                       0.98344
   65 Stretch                 55    56                       1.40617
   66 Stretch                 55    64                       1.39627
   67 Stretch                 55    70                       1.61873
   68 Stretch                 56    57                       0.94944
   69 Stretch                 56    58                       1.38977
   70 Stretch                 58    59                       0.94871
   71 Stretch                 58    60                       1.39773
   72 Stretch                 60    61                       0.94997
   73 Stretch                 60    62                       1.37280
   74 Stretch                 62    63                       0.95087
   75 Stretch                 62    64                       1.38844
   76 Stretch                 64    65                       0.94980
   77 Stretch                 66    67                       0.97996
   78 Stretch                 66    68                       0.98012
   79 Stretch                 66    69                       0.98384
   80 Stretch                 73    77                       2.10161
   81 Stretch                 73    78                       2.06322
   82 Stretch                 73    79                       2.11043
   83 Stretch                 73    80                       2.06813
   84 Stretch                 74    97                       1.47326
   85 Stretch                 74   100                       1.34331
   86 Stretch                 75   101                       1.34495
   87 Stretch                 75   102                       1.46331
   88 Stretch                 76   125                       1.35661
   89 Stretch                 76   126                       1.44852
   90 Stretch                 77    92                       1.49108
   91 Stretch                 77   100                       1.28792
   92 Stretch                 78   101                       1.28242
   93 Stretch                 78   105                       1.50362
   94 Stretch                 79   125                       1.27455
   95 Stretch                 79   129                       1.48076
   96 Stretch                 80    81                       1.48557
   97 Stretch                 80   143                       0.99076
   98 Stretch                 80   144                       0.98965
   99 Stretch                 81    82                       1.40209
  100 Stretch                 81    90                       1.40925
  101 Stretch                 82    83                       0.95018
  102 Stretch                 82    84                       1.39691
  103 Stretch                 84    85                       0.94945
  104 Stretch                 84    86                       1.36865
  105 Stretch                 86    87                       0.95029
  106 Stretch                 86    88                       1.37878
  107 Stretch                 88    89                       0.94891
  108 Stretch                 88    90                       1.36650
  109 Stretch                 90    91                       0.94980
  110 Stretch                 92    93                       1.51440
  111 Stretch                 92    97                       1.52498
  112 Stretch                 92   138                       1.52687
  113 Stretch                 93    94                       0.97893
  114 Stretch                 93    95                       0.98069
  115 Stretch                 93    96                       0.97994
  116 Stretch                 97    98                       0.99002
  117 Stretch                 97    99                       0.98975
  118 Stretch                100   142                       1.64691
  119 Stretch                101   142                       1.63195
  120 Stretch                102   103                       0.99119
  121 Stretch                102   104                       0.98906
  122 Stretch                102   105                       1.52836
  123 Stretch                105   106                       1.52259
  124 Stretch                105   110                       1.49931
  125 Stretch                106   107                       0.98065
  126 Stretch                106   108                       0.97848
  127 Stretch                106   109                       0.98321
  128 Stretch                110   111                       0.97937
  129 Stretch                110   112                       0.97928
  130 Stretch                110   113                       0.97934
  131 Stretch                114   115                       1.39687
  132 Stretch                114   123                       1.38776
  133 Stretch                114   142                       1.60941
  134 Stretch                115   116                       0.94986
  135 Stretch                115   117                       1.39851
  136 Stretch                117   118                       0.95008
  137 Stretch                117   119                       1.38472
  138 Stretch                119   120                       0.95031
  139 Stretch                119   121                       1.36276
  140 Stretch                121   122                       0.94980
  141 Stretch                121   123                       1.39651
  142 Stretch                123   124                       0.94916
  143 Stretch                125   142                       1.65049
  144 Stretch                126   127                       0.98921
  145 Stretch                126   128                       0.98953
  146 Stretch                126   129                       1.52786
  147 Stretch                129   130                       1.50289
  148 Stretch                129   134                       1.53324
  149 Stretch                130   131                       0.98057
  150 Stretch                130   132                       0.97929
  151 Stretch                130   133                       0.97972
  152 Stretch                134   135                       0.97949
  153 Stretch                134   136                       0.97658
  154 Stretch                134   137                       0.97877
  155 Stretch                138   139                       0.97956
  156 Stretch                138   140                       0.97757
  157 Stretch                138   141                       0.97971
  158 Bend                     1     5    20               135.33416
  159 Bend                     1     5    28               115.21284
  160 Bend                     1     6    29               116.83210
  161 Bend                     1     6    33               132.82249
  162 Bend                     1     7    42               116.75449
  163 Bend                     1     7    46               131.37620
  164 Bend                     1     8     9               109.38559
  165 Bend                     1     8    71               109.78847
  166 Bend                     1     8    72               109.83087
  167 Bend                     2    25    20               104.75956
  168 Bend                     2    25    26               110.73334
  169 Bend                     2    25    27               110.73777
  170 Bend                     2    28     5               115.65667
  171 Bend                     2    28    70               118.87912
  172 Bend                     3    29     6               115.16894
  173 Bend                     3    29    70               121.95366
  174 Bend                     3    30    31               110.88949
  175 Bend                     3    30    32               110.87300
  176 Bend                     3    30    33               104.53212
  177 Bend                     4    42     7               115.56495
  178 Bend                     4    42    70               121.09488
  179 Bend                     4    43    44               110.82698
  180 Bend                     4    43    45               110.91740
  181 Bend                     4    43    46               104.22261
  182 Bend                     5     1     6                89.88488
  183 Bend                     5     1     7                90.27197
  184 Bend                     5     1     8               134.86009
  185 Bend                     5    20    21               108.33754
  186 Bend                     5    20    25               101.48255
  187 Bend                     5    20    66               110.17555
  188 Bend                     5    28    70               125.43388
  189 Bend                     6     1     7                88.70074
  190 Bend                     6     1     8               121.55576
  191 Bend                     6    29    70               122.87629
  192 Bend                     6    33    30               102.56965
  193 Bend                     6    33    34               106.74064
  194 Bend                     6    33    38               111.23037
  195 Bend                     7     1     8               119.20902
  196 Bend                     7    42    70               123.27464
  197 Bend                     7    46    43               101.91578
  198 Bend                     7    46    47               109.83176
  199 Bend                     7    46    51               109.21881
  200 Bend                     8     9    10               121.38936
  201 Bend                     8     9    18               122.22042
  202 Bend                     9     8    71               109.77522
  203 Bend                     9     8    72               109.80302
  204 Bend                     9    10    11               118.82219
  205 Bend                     9    10    12               122.31832
  206 Bend                     9    18    16               121.37749
  207 Bend                     9    18    19               119.26813
  208 Bend                    10     9    18               116.38202
  209 Bend                    10    12    13               119.95477
  210 Bend                    10    12    14               120.07447
  211 Bend                    11    10    12               118.85949
  212 Bend                    12    14    15               120.59655
  213 Bend                    12    14    16               118.74178
  214 Bend                    13    12    14               119.97076
  215 Bend                    14    16    17               119.53054
  216 Bend                    14    16    18               121.09996
  217 Bend                    15    14    16               120.66167
  218 Bend                    16    18    19               119.35436
  219 Bend                    17    16    18               119.36949
  220 Bend                    20     5    28               109.41666
  221 Bend                    20    21    22               109.48697
  222 Bend                    20    21    23               109.49689
  223 Bend                    20    21    24               109.37186
  224 Bend                    20    25    26               110.83989
  225 Bend                    20    25    27               110.81005
  226 Bend                    20    66    67               109.53063
  227 Bend                    20    66    68               109.44865
  228 Bend                    20    66    69               109.37982
  229 Bend                    21    20    25               113.01127
  230 Bend                    21    20    66               110.95579
  231 Bend                    22    21    23               109.50848
  232 Bend                    22    21    24               109.60724
  233 Bend                    23    21    24               109.35574
  234 Bend                    25     2    28               106.56968
  235 Bend                    25    20    66               112.40275
  236 Bend                    25    26   137               122.36419
  237 Bend                    26   137   134               140.73736
  238 Bend                    26    25    27               108.92855
  239 Bend                    28    70    29               103.41542
  240 Bend                    28    70    42               104.65569
  241 Bend                    28    70    55               111.65946
  242 Bend                    29     3    30               107.04920
  243 Bend                    29     6    33               109.44978
  244 Bend                    29    70    42               102.87794
  245 Bend                    29    70    55               117.13595
  246 Bend                    30    33    34               112.54481
  247 Bend                    30    33    38               111.72725
  248 Bend                    31    30    32               108.79142
  249 Bend                    31    30    33               110.88762
  250 Bend                    32    30    33               110.84096
  251 Bend                    33    34    35               109.62093
  252 Bend                    33    34    36               109.39647
  253 Bend                    33    34    37               109.81406
  254 Bend                    33    38    39               109.40587
  255 Bend                    33    38    40               109.35220
  256 Bend                    33    38    41               109.45272
  257 Bend                    34    33    38               111.57183
  258 Bend                    35    34    36               109.49583
  259 Bend                    35    34    37               109.45241
  260 Bend                    36    34    37               109.04594
  261 Bend                    39    38    40               109.84750
  262 Bend                    39    38    41               109.43749
  263 Bend                    40    38    41               109.33106
  264 Bend                    42     4    43               106.42449
  265 Bend                    42     7    46               110.40813
  266 Bend                    42    70    55               115.61082
  267 Bend                    43    46    47               111.63542
  268 Bend                    43    46    51               112.38224
  269 Bend                    44    43    45               109.04026
  270 Bend                    44    43    46               110.85106
  271 Bend                    45    43    46               110.93413
  272 Bend                    46    47    48               109.48341
  273 Bend                    46    47    49               109.70805
  274 Bend                    46    47    50               109.19237
  275 Bend                    46    51    52               109.36788
  276 Bend                    46    51    53               109.52716
  277 Bend                    46    51    54               109.38144
  278 Bend                    47    46    51               111.42190
  279 Bend                    48    47    49               109.22243
  280 Bend                    48    47    50               109.62011
  281 Bend                    49    47    50               109.60153
  282 Bend                    52    51    53               109.58550
  283 Bend                    52    51    54               109.08874
  284 Bend                    53    51    54               109.87466
  285 Bend                    55    56    57               118.92709
  286 Bend                    55    56    58               122.01086
  287 Bend                    55    64    62               122.55867
  288 Bend                    55    64    65               118.69869
  289 Bend                    56    55    64               115.89199
  290 Bend                    56    55    70               122.24218
  291 Bend                    56    58    59               119.98018
  292 Bend                    56    58    60               120.07319
  293 Bend                    57    56    58               119.06195
  294 Bend                    58    60    61               120.56634
  295 Bend                    58    60    62               118.97113
  296 Bend                    59    58    60               119.94658
  297 Bend                    60    62    63               119.82033
  298 Bend                    60    62    64               120.45120
  299 Bend                    61    60    62               120.46247
  300 Bend                    62    64    65               118.74254
  301 Bend                    63    62    64               119.72846
  302 Bend                    64    55    70               121.78361
  303 Bend                    67    66    68               109.21169
  304 Bend                    67    66    69               109.29261
  305 Bend                    68    66    69               109.96354
  306 Bend                    71     8    72               108.24206
  307 Bend                    73    77    92               132.51412
  308 Bend                    73    77   100               116.62753
  309 Bend                    73    78   101               115.94222
  310 Bend                    73    78   105               133.39310
  311 Bend                    73    79   125               117.66232
  312 Bend                    73    79   129               131.33412
  313 Bend                    73    80    81               110.39501
  314 Bend                    73    80   143               109.49552
  315 Bend                    73    80   144               109.51638
  316 Bend                    74    97    92               104.06268
  317 Bend                    74    97    98               110.93540
  318 Bend                    74    97    99               110.95118
  319 Bend                    74   100    77               115.39822
  320 Bend                    74   100   142               120.98363
  321 Bend                    75   101    78               115.46779
  322 Bend                    75   101   142               118.95877
  323 Bend                    75   102   103               110.62160
  324 Bend                    75   102   104               110.73619
  325 Bend                    75   102   105               105.46516
  326 Bend                    76   125    79               114.99554
  327 Bend                    76   125   142               122.58552
  328 Bend                    76   126   127               110.48108
  329 Bend                    76   126   128               110.46824
  330 Bend                    76   126   129               105.99124
  331 Bend                    77    73    78                90.86822
  332 Bend                    77    73    79                88.26391
  333 Bend                    77    73    80               122.97866
  334 Bend                    77    92    93               110.35030
  335 Bend                    77    92    97               101.23318
  336 Bend                    77    92   138               108.33990
  337 Bend                    77   100   142               123.41970
  338 Bend                    78    73    79                88.26163
  339 Bend                    78    73    80               133.76303
  340 Bend                    78   101   142               125.52779
  341 Bend                    78   105   102               101.04493
  342 Bend                    78   105   106               109.79161
  343 Bend                    78   105   110               108.48630
  344 Bend                    79    73    80               119.99311
  345 Bend                    79   125   142               122.39711
  346 Bend                    79   129   126               101.33315
  347 Bend                    79   129   130               109.66376
  348 Bend                    79   129   134               108.40996
  349 Bend                    80    81    82               121.01954
  350 Bend                    80    81    90               122.32482
  351 Bend                    81    80   143               109.59875
  352 Bend                    81    80   144               109.67465
  353 Bend                    81    82    83               119.66412
  354 Bend                    81    82    84               120.55278
  355 Bend                    81    90    88               121.81119
  356 Bend                    81    90    91               119.13746
  357 Bend                    82    81    90               116.59001
  358 Bend                    82    84    85               119.38485
  359 Bend                    82    84    86               121.16642
  360 Bend                    83    82    84               119.78308
  361 Bend                    84    86    87               120.46448
  362 Bend                    84    86    88               118.93887
  363 Bend                    85    84    86               119.44865
  364 Bend                    86    88    89               119.51713
  365 Bend                    86    88    90               120.93435
  366 Bend                    87    86    88               120.59646
  367 Bend                    88    90    91               119.05108
  368 Bend                    89    88    90               119.54850
  369 Bend                    92    77   100               109.10366
  370 Bend                    92    93    94               109.46265
  371 Bend                    92    93    95               109.45682
  372 Bend                    92    93    96               109.48386
  373 Bend                    92    97    98               110.87420
  374 Bend                    92    97    99               110.91152
  375 Bend                    92   138   139               109.41838
  376 Bend                    92   138   140               109.51048
  377 Bend                    92   138   141               109.41933
  378 Bend                    93    92    97               112.37038
  379 Bend                    93    92   138               111.83863
  380 Bend                    94    93    95               109.77210
  381 Bend                    94    93    96               109.22440
  382 Bend                    95    93    96               109.42712
  383 Bend                    97    74   100               106.41355
  384 Bend                    97    92   138               112.13926
  385 Bend                    98    97    99               109.05335
  386 Bend                   100   142   101               106.26031
  387 Bend                   100   142   114               115.51870
  388 Bend                   100   142   125               101.36817
  389 Bend                   101    75   102               107.12909
  390 Bend                   101    78   105               109.80492
  391 Bend                   101   142   114               111.84285
  392 Bend                   101   142   125               103.44730
  393 Bend                   102   105   106               112.81768
  394 Bend                   102   105   110               112.61954
  395 Bend                   103   102   104               108.71708
  396 Bend                   103   102   105               110.59987
  397 Bend                   104   102   105               110.68981
  398 Bend                   105   106   107               109.45142
  399 Bend                   105   106   108               109.27171
  400 Bend                   105   106   109               109.39497
  401 Bend                   105   110   111               109.47281
  402 Bend                   105   110   112               109.47997
  403 Bend                   105   110   113               109.39077
  404 Bend                   106   105   110               111.49230
  405 Bend                   107   106   108               109.55794
  406 Bend                   107   106   109               109.07039
  407 Bend                   108   106   109               110.07986
  408 Bend                   111   110   112               109.62066
  409 Bend                   111   110   113               109.61270
  410 Bend                   112   110   113               109.24997
  411 Bend                   114   115   116               119.25577
  412 Bend                   114   115   117               121.65774
  413 Bend                   114   123   121               122.66180
  414 Bend                   114   123   124               118.65752
  415 Bend                   114   142   125               117.01021
  416 Bend                   115   114   123               116.14756
  417 Bend                   115   114   142               120.80411
  418 Bend                   115   117   118               120.01203
  419 Bend                   115   117   119               119.96581
  420 Bend                   116   115   117               119.08646
  421 Bend                   117   119   120               120.18465
  422 Bend                   117   119   121               119.67573
  423 Bend                   118   117   119               120.02204
  424 Bend                   119   121   122               120.13470
  425 Bend                   119   121   123               119.84578
  426 Bend                   120   119   121               120.13953
  427 Bend                   121   123   124               118.68057
  428 Bend                   122   121   123               120.01952
  429 Bend                   123   114   142               122.80993
  430 Bend                   125    76   126               106.88028
  431 Bend                   125    79   129               110.73493
  432 Bend                   126   129   130               113.68011
  433 Bend                   126   129   134               112.49766
  434 Bend                   127   126   128               108.77636
  435 Bend                   127   126   129               110.54077
  436 Bend                   128   126   129               110.57333
  437 Bend                   129   130   131               109.54402
  438 Bend                   129   130   132               109.44910
  439 Bend                   129   130   133               109.82625
  440 Bend                   129   134   135               109.55217
  441 Bend                   129   134   136               109.64837
  442 Bend                   129   134   137               109.53710
  443 Bend                   130   129   134               110.73186
  444 Bend                   131   130   132               109.03029
  445 Bend                   131   130   133               109.91652
  446 Bend                   132   130   133               109.05652
  447 Bend                   135   134   136               109.30854
  448 Bend                   135   134   137               109.12457
  449 Bend                   136   134   137               109.65517
  450 Bend                   139   138   140               109.38297
  451 Bend                   139   138   141               109.54690
  452 Bend                   140   138   141               109.54921
  453 Bend                   143    80   144               108.12337
  454 Torsion                  1     5    20    21         -70.02695
  455 Torsion                  1     5    20    25         170.79246
  456 Torsion                  1     5    20    66          51.52010
  457 Torsion                  1     5    28     2        -177.51577
  458 Torsion                  1     5    28    70           4.51979
  459 Torsion                  1     6    29     3        -174.62237
  460 Torsion                  1     6    29    70           5.00068
  461 Torsion                  1     6    33    30         177.85915
  462 Torsion                  1     6    33    34          59.35171
  463 Torsion                  1     6    33    38         -62.56899
  464 Torsion                  1     7    42     4        -169.96520
  465 Torsion                  1     7    42    70           7.11512
  466 Torsion                  1     7    46    43         174.25901
  467 Torsion                  1     7    46    47         -67.27219
  468 Torsion                  1     7    46    51          55.20056
  469 Torsion                  1     8     9    10          83.99921
  470 Torsion                  1     8     9    18         -94.92122
  471 Torsion                  2    25    20     5          14.08681
  472 Torsion                  2    25    20    21        -101.70276
  473 Torsion                  2    25    20    66         131.75881
  474 Torsion                  2    25    26   137          29.24545
  475 Torsion                  2    28     5    20           4.33651
  476 Torsion                  2    28    70    29        -126.41922
  477 Torsion                  2    28    70    42         126.17065
  478 Torsion                  2    28    70    55           0.39644
  479 Torsion                  3    29     6    33          -4.05710
  480 Torsion                  3    29    70    28         122.95803
  481 Torsion                  3    29    70    42        -128.29740
  482 Torsion                  3    29    70    55          -0.31437
  483 Torsion                  3    30    33     6         -10.76646
  484 Torsion                  3    30    33    34         103.56995
  485 Torsion                  3    30    33    38        -129.99132
  486 Torsion                  4    42     7    46          -2.17139
  487 Torsion                  4    42    70    28        -135.49079
  488 Torsion                  4    42    70    29         116.70354
  489 Torsion                  4    42    70    55         -12.23159
  490 Torsion                  4    43    46     7         -11.58668
  491 Torsion                  4    43    46    47        -128.76167
  492 Torsion                  4    43    46    51         105.20422
  493 Torsion                  5     1     6    29          42.42632
  494 Torsion                  5     1     6    33        -125.40801
  495 Torsion                  5     1     7    42         -48.48390
  496 Torsion                  5     1     7    46         146.82821
  497 Torsion                  5     1     8     9           7.36643
  498 Torsion                  5     1     8    71         127.88222
  499 Torsion                  5     1     8    72        -113.20992
  500 Torsion                  5    20    21    22         -58.15108
  501 Torsion                  5    20    21    23          61.91996
  502 Torsion                  5    20    21    24        -178.26641
  503 Torsion                  5    20    25    26        -105.38625
  504 Torsion                  5    20    25    27         133.54969
  505 Torsion                  5    20    66    67         -66.61080
  506 Torsion                  5    20    66    68          53.09400
  507 Torsion                  5    20    66    69         173.62739
  508 Torsion                  5    28     2    25           5.53631
  509 Torsion                  5    28    70    29          51.48530
  510 Torsion                  5    28    70    42         -55.92482
  511 Torsion                  5    28    70    55         178.30097
  512 Torsion                  6     1     5    20         130.58776
  513 Torsion                  6     1     5    28         -46.92682
  514 Torsion                  6     1     7    42          41.39479
  515 Torsion                  6     1     7    46        -123.29310
  516 Torsion                  6     1     8     9        -120.06575
  517 Torsion                  6     1     8    71           0.45004
  518 Torsion                  6     1     8    72         119.35789
  519 Torsion                  6    29     3    30          -3.45189
  520 Torsion                  6    29    70    28         -56.63988
  521 Torsion                  6    29    70    42          52.10469
  522 Torsion                  6    29    70    55        -179.91228
  523 Torsion                  6    33    30    31        -130.31643
  524 Torsion                  6    33    30    32         108.73994
  525 Torsion                  6    33    34    35         -68.18805
  526 Torsion                  6    33    34    36          51.88795
  527 Torsion                  6    33    34    37         171.53060
  528 Torsion                  6    33    38    39         -54.32877
  529 Torsion                  6    33    38    40          66.01907
  530 Torsion                  6    33    38    41        -174.23624
  531 Torsion                  7     1     5    20        -140.71207
  532 Torsion                  7     1     5    28          41.77335
  533 Torsion                  7     1     6    29         -47.84833
  534 Torsion                  7     1     6    33         144.31735
  535 Torsion                  7     1     8     9         131.70180
  536 Torsion                  7     1     8    71        -107.78241
  537 Torsion                  7     1     8    72          11.12545
  538 Torsion                  7    42     4    43          -5.99558
  539 Torsion                  7    42    70    28          47.58514
  540 Torsion                  7    42    70    29         -60.22054
  541 Torsion                  7    42    70    55         170.84434
  542 Torsion                  7    46    43    44        -130.86374
  543 Torsion                  7    46    43    45         107.83939
  544 Torsion                  7    46    47    48         -53.67194
  545 Torsion                  7    46    47    49          66.17576
  546 Torsion                  7    46    47    50        -173.69111
  547 Torsion                  7    46    51    52         -62.58807
  548 Torsion                  7    46    51    53          57.52278
  549 Torsion                  7    46    51    54         177.99653
  550 Torsion                  8     1     5    20          -6.82936
  551 Torsion                  8     1     5    28         175.65606
  552 Torsion                  8     1     6    29        -171.82786
  553 Torsion                  8     1     6    33          20.33782
  554 Torsion                  8     1     7    42         167.34200
  555 Torsion                  8     1     7    46           2.65411
  556 Torsion                  8     9    10    11           0.60135
  557 Torsion                  8     9    10    12        -179.42196
  558 Torsion                  8     9    18    16         179.84584
  559 Torsion                  8     9    18    19          -0.20349
  560 Torsion                  9    10    12    13        -179.98777
  561 Torsion                  9    10    12    14           0.02489
  562 Torsion                  9    18    16    14          -0.90963
  563 Torsion                  9    18    16    17         179.05880
  564 Torsion                 10     9     8    71         -36.52467
  565 Torsion                 10     9     8    72        -155.40746
  566 Torsion                 10     9    18    16           0.87455
  567 Torsion                 10     9    18    19        -179.17478
  568 Torsion                 10    12    14    15         179.99411
  569 Torsion                 10    12    14    16          -0.01804
  570 Torsion                 11    10     9    18         179.58186
  571 Torsion                 11    10    12    13          -0.01109
  572 Torsion                 11    10    12    14        -179.99843
  573 Torsion                 12    10     9    18          -0.44146
  574 Torsion                 12    14    16    17        -179.51423
  575 Torsion                 12    14    16    18           0.45415
  576 Torsion                 13    12    14    15           0.00677
  577 Torsion                 13    12    14    16         179.99463
  578 Torsion                 14    16    18    19         179.13974
  579 Torsion                 15    14    16    17           0.47361
  580 Torsion                 15    14    16    18        -179.55801
  581 Torsion                 17    16    18    19          -0.89183
  582 Torsion                 18     9     8    71         144.55490
  583 Torsion                 18     9     8    72          25.67211
  584 Torsion                 20     5    28    70        -173.62793
  585 Torsion                 20    25     2    28         -12.45361
  586 Torsion                 20    25    26   137         145.06680
  587 Torsion                 21    20     5    28         107.58887
  588 Torsion                 21    20    25    26         138.82419
  589 Torsion                 21    20    25    27          17.76012
  590 Torsion                 21    20    66    67          53.36568
  591 Torsion                 21    20    66    68         173.07049
  592 Torsion                 21    20    66    69         -66.39613
  593 Torsion                 22    21    20    25          53.47925
  594 Torsion                 22    21    20    66        -179.21677
  595 Torsion                 23    21    20    25         173.55029
  596 Torsion                 23    21    20    66         -59.14573
  597 Torsion                 24    21    20    25         -66.63608
  598 Torsion                 24    21    20    66          60.66790
  599 Torsion                 25     2    28    70        -176.35773
  600 Torsion                 25    20     5    28         -11.59172
  601 Torsion                 25    20    66    67        -178.99813
  602 Torsion                 25    20    66    68         -59.29332
  603 Torsion                 25    20    66    69          61.24006
  604 Torsion                 25    26   137   134        -120.76960
  605 Torsion                 26   137   134   129         -14.98318
  606 Torsion                 26   137   134   135        -134.91055
  607 Torsion                 26   137   134   136         105.38830
  608 Torsion                 26    25     2    28         107.09090
  609 Torsion                 26    25    20    66          12.28575
  610 Torsion                 27    25     2    28        -131.96498
  611 Torsion                 27    25    20    66        -108.77831
  612 Torsion                 27    25    26   137         -92.76453
  613 Torsion                 28     5    20    66        -130.86408
  614 Torsion                 28    70    55    56         -87.85181
  615 Torsion                 28    70    55    64          88.71477
  616 Torsion                 29     3    30    31         128.62951
  617 Torsion                 29     3    30    32        -110.40402
  618 Torsion                 29     3    30    33           9.08080
  619 Torsion                 29     6    33    30           9.36280
  620 Torsion                 29     6    33    34        -109.14464
  621 Torsion                 29     6    33    38         128.93466
  622 Torsion                 29    70    55    56          31.09830
  623 Torsion                 29    70    55    64        -152.33511
  624 Torsion                 30     3    29    70         176.92123
  625 Torsion                 30    33    34    35        -179.96091
  626 Torsion                 30    33    34    36         -59.88491
  627 Torsion                 30    33    34    37          59.75774
  628 Torsion                 30    33    38    39          59.63365
  629 Torsion                 30    33    38    40         179.98149
  630 Torsion                 30    33    38    41         -60.27382
  631 Torsion                 31    30    33    34         -15.98001
  632 Torsion                 31    30    33    38         110.45872
  633 Torsion                 32    30    33    34        -136.92365
  634 Torsion                 32    30    33    38         -10.48492
  635 Torsion                 33     6    29    70         175.56595
  636 Torsion                 34    33    38    39        -173.39873
  637 Torsion                 34    33    38    40         -53.05089
  638 Torsion                 34    33    38    41          66.69381
  639 Torsion                 35    34    33    38          53.51692
  640 Torsion                 36    34    33    38         173.59292
  641 Torsion                 37    34    33    38         -66.76442
  642 Torsion                 42     4    43    44         130.21934
  643 Torsion                 42     4    43    45        -108.51147
  644 Torsion                 42     4    43    46          10.92595
  645 Torsion                 42     7    46    43           8.83110
  646 Torsion                 42     7    46    47         127.29990
  647 Torsion                 42     7    46    51        -110.22735
  648 Torsion                 42    70    55    56         152.65921
  649 Torsion                 42    70    55    64         -30.77420
  650 Torsion                 43     4    42    70         176.85495
  651 Torsion                 43    46    47    48          58.61066
  652 Torsion                 43    46    47    49         178.45837
  653 Torsion                 43    46    47    50         -61.40851
  654 Torsion                 43    46    51    52        -174.92381
  655 Torsion                 43    46    51    53         -54.81296
  656 Torsion                 43    46    51    54          65.66079
  657 Torsion                 44    43    46    47         111.96127
  658 Torsion                 44    43    46    51         -14.07284
  659 Torsion                 45    43    46    47          -9.33560
  660 Torsion                 45    43    46    51        -135.36970
  661 Torsion                 46     7    42    70         174.90893
  662 Torsion                 47    46    51    52          58.92654
  663 Torsion                 47    46    51    53         179.03739
  664 Torsion                 47    46    51    54         -60.48886
  665 Torsion                 48    47    46    51        -174.82956
  666 Torsion                 49    47    46    51         -54.98185
  667 Torsion                 50    47    46    51          65.15127
  668 Torsion                 55    56    58    59         179.51957
  669 Torsion                 55    56    58    60          -0.39707
  670 Torsion                 55    64    62    60          -0.59491
  671 Torsion                 55    64    62    63         179.43693
  672 Torsion                 56    55    64    62          -1.23980
  673 Torsion                 56    55    64    65         178.64052
  674 Torsion                 56    58    60    61         178.41334
  675 Torsion                 56    58    60    62          -1.49691
  676 Torsion                 57    56    55    64        -178.16467
  677 Torsion                 57    56    55    70          -1.40867
  678 Torsion                 57    56    58    59          -0.59572
  679 Torsion                 57    56    58    60         179.48764
  680 Torsion                 58    56    55    64           1.72020
  681 Torsion                 58    56    55    70         178.47620
  682 Torsion                 58    60    62    63        -178.05169
  683 Torsion                 58    60    62    64           1.98018
  684 Torsion                 59    58    60    61          -1.50333
  685 Torsion                 59    58    60    62         178.58642
  686 Torsion                 60    62    64    65         179.52482
  687 Torsion                 61    60    62    63           2.03796
  688 Torsion                 61    60    62    64        -177.93016
  689 Torsion                 62    64    55    70        -178.01200
  690 Torsion                 63    62    64    65          -0.44334
  691 Torsion                 65    64    55    70           1.86831
  692 Torsion                 73    77    92    93          61.33618
  693 Torsion                 73    77    92    97        -179.48593
  694 Torsion                 73    77    92   138         -61.41162
  695 Torsion                 73    77   100    74         172.60229
  696 Torsion                 73    77   100   142          -2.31377
  697 Torsion                 73    78   101    75        -175.57009
  698 Torsion                 73    78   101   142           1.93423
  699 Torsion                 73    78   105   102         177.79124
  700 Torsion                 73    78   105   106         -62.85731
  701 Torsion                 73    78   105   110          59.20712
  702 Torsion                 73    79   125    76        -173.17135
  703 Torsion                 73    79   125   142           5.16934
  704 Torsion                 73    79   129   126         171.35485
  705 Torsion                 73    79   129   130         -68.20740
  706 Torsion                 73    79   129   134          52.79898
  707 Torsion                 73    80    81    82          75.16367
  708 Torsion                 73    80    81    90        -101.78915
  709 Torsion                 74    97    92    77          18.77436
  710 Torsion                 74    97    92    93         136.49397
  711 Torsion                 74    97    92   138         -96.51177
  712 Torsion                 74   100    77    92           5.78312
  713 Torsion                 74   100   142   101         136.10457
  714 Torsion                 74   100   142   114          11.44516
  715 Torsion                 74   100   142   125        -116.09332
  716 Torsion                 75   101    78   105          -4.74584
  717 Torsion                 75   101   142   100        -132.09457
  718 Torsion                 75   101   142   114          -5.19764
  719 Torsion                 75   101   142   125         121.59427
  720 Torsion                 75   102   105    78         -10.01443
  721 Torsion                 75   102   105   106        -127.16968
  722 Torsion                 75   102   105   110         105.53646
  723 Torsion                 76   125    79   129           1.54983
  724 Torsion                 76   125   142   100         118.13897
  725 Torsion                 76   125   142   101        -131.87872
  726 Torsion                 76   125   142   114          -8.42458
  727 Torsion                 76   126   129    79           2.38426
  728 Torsion                 76   126   129   130        -115.17334
  729 Torsion                 76   126   129   134         117.95558
  730 Torsion                 77    73    78   101         -44.19680
  731 Torsion                 77    73    78   105         147.71864
  732 Torsion                 77    73    79   125          42.45775
  733 Torsion                 77    73    79   129        -130.96219
  734 Torsion                 77    73    80    81        -107.03340
  735 Torsion                 77    73    80   143          13.71423
  736 Torsion                 77    73    80   144         132.11134
  737 Torsion                 77    92    93    94         -65.58681
  738 Torsion                 77    92    93    95          54.76787
  739 Torsion                 77    92    93    96         174.71278
  740 Torsion                 77    92    97    98        -100.55003
  741 Torsion                 77    92    97    99         138.13613
  742 Torsion                 77    92   138   139         -57.46518
  743 Torsion                 77    92   138   140          62.41845
  744 Torsion                 77    92   138   141        -177.49377
  745 Torsion                 77   100    74    97           7.35453
  746 Torsion                 77   100   142   101         -49.25314
  747 Torsion                 77   100   142   114        -173.91255
  748 Torsion                 77   100   142   125          58.54898
  749 Torsion                 78    73    77    92        -152.37794
  750 Torsion                 78    73    77   100          44.61857
  751 Torsion                 78    73    79   125         -48.46399
  752 Torsion                 78    73    79   129         138.11607
  753 Torsion                 78    73    80    81          23.24180
  754 Torsion                 78    73    80   143         143.98943
  755 Torsion                 78    73    80   144         -97.61346
  756 Torsion                 78   101    75   102          -2.33389
  757 Torsion                 78   101   142   100          50.48062
  758 Torsion                 78   101   142   114         177.37756
  759 Torsion                 78   101   142   125         -55.83053
  760 Torsion                 78   105   102   103        -129.64326
  761 Torsion                 78   105   102   104         109.79928
  762 Torsion                 78   105   106   107          67.67495
  763 Torsion                 78   105   106   108        -172.35290
  764 Torsion                 78   105   106   109         -51.77659
  765 Torsion                 78   105   110   111         -69.44973
  766 Torsion                 78   105   110   112          50.73974
  767 Torsion                 78   105   110   113         170.42532
  768 Torsion                 79    73    77    92         119.38776
  769 Torsion                 79    73    77   100         -43.61573
  770 Torsion                 79    73    78   101          44.03974
  771 Torsion                 79    73    78   105        -124.04482
  772 Torsion                 79    73    80    81         143.52616
  773 Torsion                 79    73    80   143         -95.72621
  774 Torsion                 79    73    80   144          22.67090
  775 Torsion                 79   125    76   126           0.15374
  776 Torsion                 79   125   142   100         -60.07614
  777 Torsion                 79   125   142   101          49.90617
  778 Torsion                 79   125   142   114         173.36031
  779 Torsion                 79   129   126   127        -117.35642
  780 Torsion                 79   129   126   128         122.12727
  781 Torsion                 79   129   130   131         -59.80714
  782 Torsion                 79   129   130   132          59.68427
  783 Torsion                 79   129   130   133         179.37975
  784 Torsion                 79   129   134   135         -56.24295
  785 Torsion                 79   129   134   136          63.71613
  786 Torsion                 79   129   134   137        -175.90825
  787 Torsion                 80    73    77    92          -5.81836
  788 Torsion                 80    73    77   100        -168.82185
  789 Torsion                 80    73    78   101         175.60177
  790 Torsion                 80    73    78   105           7.51720
  791 Torsion                 80    73    79   125         170.14020
  792 Torsion                 80    73    79   129          -3.27974
  793 Torsion                 80    81    82    83           2.19486
  794 Torsion                 80    81    82    84        -177.86007
  795 Torsion                 80    81    90    88         178.05773
  796 Torsion                 80    81    90    91          -1.75060
  797 Torsion                 81    82    84    85        -179.65137
  798 Torsion                 81    82    84    86           0.24396
  799 Torsion                 81    90    88    86          -0.70953
  800 Torsion                 81    90    88    89         179.24549
  801 Torsion                 82    81    80   143         -45.52227
  802 Torsion                 82    81    80   144        -164.07556
  803 Torsion                 82    81    90    88           0.97789
  804 Torsion                 82    81    90    91        -178.83043
  805 Torsion                 82    84    86    87         179.90461
  806 Torsion                 82    84    86    88           0.06600
  807 Torsion                 83    82    81    90         179.31549
  808 Torsion                 83    82    84    85           0.29364
  809 Torsion                 83    82    84    86        -179.81103
  810 Torsion                 84    82    81    90          -0.73944
  811 Torsion                 84    86    88    89        -179.79225
  812 Torsion                 84    86    88    90           0.16279
  813 Torsion                 85    84    86    87          -0.20013
  814 Torsion                 85    84    86    88         179.96126
  815 Torsion                 86    88    90    91         179.09895
  816 Torsion                 87    86    88    89           0.36937
  817 Torsion                 87    86    88    90        -179.67560
  818 Torsion                 89    88    90    91          -0.94603
  819 Torsion                 90    81    80   143         137.52491
  820 Torsion                 90    81    80   144          18.97162
  821 Torsion                 92    77   100   142        -169.13293
  822 Torsion                 92    97    74   100         -16.62091
  823 Torsion                 93    92    77   100        -134.71763
  824 Torsion                 93    92    97    98          17.16958
  825 Torsion                 93    92    97    99        -104.14425
  826 Torsion                 93    92   138   139        -179.30454
  827 Torsion                 93    92   138   140         -59.42090
  828 Torsion                 93    92   138   141          60.66687
  829 Torsion                 94    93    92    97        -177.75539
  830 Torsion                 94    93    92   138          55.08969
  831 Torsion                 95    93    92    97         -57.40071
  832 Torsion                 95    93    92   138         175.44437
  833 Torsion                 96    93    92    97          62.54420
  834 Torsion                 96    93    92   138         -64.61072
  835 Torsion                 97    74   100   142        -177.59473
  836 Torsion                 97    92    77   100         -15.53974
  837 Torsion                 97    92   138   139          53.41602
  838 Torsion                 97    92   138   140         173.29965
  839 Torsion                 97    92   138   141         -66.61257
  840 Torsion                 98    97    74   100         102.66183
  841 Torsion                 98    97    92   138         144.16384
  842 Torsion                 99    97    74   100        -135.95571
  843 Torsion                 99    97    92   138          22.85001
  844 Torsion                100    77    92   138         102.53457
  845 Torsion                100   142   114   115          38.05748
  846 Torsion                100   142   114   123        -147.77028
  847 Torsion                101    75   102   103         127.71309
  848 Torsion                101    75   102   104        -111.68445
  849 Torsion                101    75   102   105           8.09863
  850 Torsion                101    78   105   102           9.17242
  851 Torsion                101    78   105   106         128.52387
  852 Torsion                101    78   105   110        -109.41170
  853 Torsion                101   142   114   115         -83.65246
  854 Torsion                101   142   114   123          90.51977
  855 Torsion                102    75   101   142         179.98732
  856 Torsion                102   105   106   107         179.53201
  857 Torsion                102   105   106   108         -60.49584
  858 Torsion                102   105   106   109          60.08046
  859 Torsion                102   105   110   111         179.56446
  860 Torsion                102   105   110   112         -60.24607
  861 Torsion                102   105   110   113          59.43951
  862 Torsion                103   102   105   106         113.20149
  863 Torsion                103   102   105   110         -14.09238
  864 Torsion                104   102   105   106          -7.35597
  865 Torsion                104   102   105   110        -134.64984
  866 Torsion                105    78   101   142         172.75848
  867 Torsion                106   105   110   111          51.57091
  868 Torsion                106   105   110   112         171.76038
  869 Torsion                106   105   110   113         -68.55404
  870 Torsion                107   106   105   110         -52.58085
  871 Torsion                108   106   105   110          67.39129
  872 Torsion                109   106   105   110        -172.03240
  873 Torsion                114   115   117   118         177.71003
  874 Torsion                114   115   117   119          -2.41134
  875 Torsion                114   123   121   119          -0.96944
  876 Torsion                114   123   121   122         179.04648
  877 Torsion                115   114   123   121          -0.50878
  878 Torsion                115   114   123   124         179.36935
  879 Torsion                115   114   142   125         157.29980
  880 Torsion                115   117   119   120        -179.25878
  881 Torsion                115   117   119   121           0.84980
  882 Torsion                116   115   114   123        -177.75702
  883 Torsion                116   115   114   142          -3.21234
  884 Torsion                116   115   117   118          -2.35280
  885 Torsion                116   115   117   119         177.52583
  886 Torsion                117   115   114   123           2.18004
  887 Torsion                117   115   114   142         176.72472
  888 Torsion                117   119   121   122        -179.22774
  889 Torsion                117   119   121   123           0.78820
  890 Torsion                118   117   119   120           0.61983
  891 Torsion                118   117   119   121        -179.27159
  892 Torsion                119   121   123   124         179.15245
  893 Torsion                120   119   121   122           0.88079
  894 Torsion                120   119   121   123        -179.10327
  895 Torsion                121   123   114   142        -174.93333
  896 Torsion                122   121   123   124          -0.83162
  897 Torsion                123   114   142   125         -28.52797
  898 Torsion                124   123   114   142           4.94481
  899 Torsion                125    76   126   127         118.08647
  900 Torsion                125    76   126   128        -121.50502
  901 Torsion                125    76   126   129          -1.69326
  902 Torsion                125    79   129   126          -2.41499
  903 Torsion                125    79   129   130         118.02276
  904 Torsion                125    79   129   134        -120.97085
  905 Torsion                126    76   125   142        -178.18347
  906 Torsion                126   129   130   131          52.81065
  907 Torsion                126   129   130   132         172.30205
  908 Torsion                126   129   130   133         -68.00247
  909 Torsion                126   129   134   135        -167.46777
  910 Torsion                126   129   134   136         -47.50870
  911 Torsion                126   129   134   137          72.86692
  912 Torsion                127   126   129   130         125.08597
  913 Torsion                127   126   129   134          -1.78510
  914 Torsion                128   126   129   130           4.56967
  915 Torsion                128   126   129   134        -122.30141
  916 Torsion                129    79   125   142         179.89052
  917 Torsion                130   129   134   135          64.10099
[...]
   97 C                |  92 C                | 138 C                |   112.14
   92 C                |  93 C                |  94 H                |   109.46
   92 C                |  93 C                |  95 H                |   109.46
   92 C                |  93 C                |  96 H                |   109.48
   94 H                |  93 C                |  95 H                |   109.77
   94 H                |  93 C                |  96 H                |   109.22
   95 H                |  93 C                |  96 H                |   109.43
   74 O                |  97 C                |  92 C                |   104.06
   74 O                |  97 C                |  98 H                |   110.94
   74 O                |  97 C                |  99 H                |   110.95
   92 C                |  97 C                |  98 H                |   110.87
   92 C                |  97 C                |  99 H                |   110.91
   98 H                |  97 C                |  99 H                |   109.05
   74 O                | 100 C                |  77 N                |   115.40
   74 O                | 100 C                | 142 B                |   120.98
   77 N                | 100 C                | 142 B                |   123.42
   75 O                | 101 C                |  78 N                |   115.47
   75 O                | 101 C                | 142 B                |   118.96
   78 N                | 101 C                | 142 B                |   125.53
   75 O                | 102 C                | 103 H                |   110.62
   75 O                | 102 C                | 104 H                |   110.74
   75 O                | 102 C                | 105 C                |   105.47
  103 H                | 102 C                | 104 H                |   108.72
  103 H                | 102 C                | 105 C                |   110.60
  104 H                | 102 C                | 105 C                |   110.69
   78 N                | 105 C                | 102 C                |   101.04
   78 N                | 105 C                | 106 C                |   109.79
   78 N                | 105 C                | 110 C                |   108.49
  102 C                | 105 C                | 106 C                |   112.82
  102 C                | 105 C                | 110 C                |   112.62
  106 C                | 105 C                | 110 C                |   111.49
  105 C                | 106 C                | 107 H                |   109.45
  105 C                | 106 C                | 108 H                |   109.27
  105 C                | 106 C                | 109 H                |   109.39
  107 H                | 106 C                | 108 H                |   109.56
  107 H                | 106 C                | 109 H                |   109.07
  108 H                | 106 C                | 109 H                |   110.08
  105 C                | 110 C                | 111 H                |   109.47
  105 C                | 110 C                | 112 H                |   109.48
  105 C                | 110 C                | 113 H                |   109.39
  111 H                | 110 C                | 112 H                |   109.62
  111 H                | 110 C                | 113 H                |   109.61
  112 H                | 110 C                | 113 H                |   109.25
  115 C                | 114 C                | 123 C                |   116.15
  115 C                | 114 C                | 142 B                |   120.80
  123 C                | 114 C                | 142 B                |   122.81
  114 C                | 115 C                | 116 H                |   119.26
  114 C                | 115 C                | 117 C                |   121.66
  116 H                | 115 C                | 117 C                |   119.09
  115 C                | 117 C                | 118 H                |   120.01
  115 C                | 117 C                | 119 C                |   119.97
  118 H                | 117 C                | 119 C                |   120.02
  117 C                | 119 C                | 120 H                |   120.18
  117 C                | 119 C                | 121 C                |   119.68
  120 H                | 119 C                | 121 C                |   120.14
  119 C                | 121 C                | 122 H                |   120.13
  119 C                | 121 C                | 123 C                |   119.85
  122 H                | 121 C                | 123 C                |   120.02
  114 C                | 123 C                | 121 C                |   122.66
  114 C                | 123 C                | 124 H                |   118.66
  121 C                | 123 C                | 124 H                |   118.68
   76 O                | 125 C                |  79 N                |   115.00
   76 O                | 125 C                | 142 B                |   122.59
   79 N                | 125 C                | 142 B                |   122.40
   76 O                | 126 C                | 127 H                |   110.48
   76 O                | 126 C                | 128 H                |   110.47
   76 O                | 126 C                | 129 C                |   105.99
  127 H                | 126 C                | 128 H                |   108.78
  127 H                | 126 C                | 129 C                |   110.54
  128 H                | 126 C                | 129 C                |   110.57
   79 N                | 129 C                | 126 C                |   101.33
   79 N                | 129 C                | 130 C                |   109.66
   79 N                | 129 C                | 134 C                |   108.41
  126 C                | 129 C                | 130 C                |   113.68
  126 C                | 129 C                | 134 C                |   112.50
  130 C                | 129 C                | 134 C                |   110.73
  129 C                | 130 C                | 131 H                |   109.54
  129 C                | 130 C                | 132 H                |   109.45
  129 C                | 130 C                | 133 H                |   109.83
  131 H                | 130 C                | 132 H                |   109.03
  131 H                | 130 C                | 133 H                |   109.92
  132 H                | 130 C                | 133 H                |   109.06
  129 C                | 134 C                | 135 H                |   109.55
  129 C                | 134 C                | 136 H                |   109.65
  129 C                | 134 C                | 137 H                |   109.54
  135 H                | 134 C                | 136 H                |   109.31
  135 H                | 134 C                | 137 H                |   109.12
  136 H                | 134 C                | 137 H                |   109.66
   92 C                | 138 C                | 139 H                |   109.42
   92 C                | 138 C                | 140 H                |   109.51
   92 C                | 138 C                | 141 H                |   109.42
  139 H                | 138 C                | 140 H                |   109.38
  139 H                | 138 C                | 141 H                |   109.55
  140 H                | 138 C                | 141 H                |   109.55
  100 C                | 142 B                | 101 C                |   106.26
  100 C                | 142 B                | 114 C                |   115.52
  100 C                | 142 B                | 125 C                |   101.37
  101 C                | 142 B                | 114 C                |   111.84
  101 C                | 142 B                | 125 C                |   103.45
  114 C                | 142 B                | 125 C                |   117.01
 ------------------------------------------------------------------------------
                            number of included internuclear angles:        294
 ==============================================================================



  library name resolved from: environment
  library file name is: </work/LAS/twindus-lab/nwchem/6.6-intel/data/libraries/>
  
                      Basis "ao basis" -> "" (cartesian)
                      -----
  Fe (Iron)
  ---------
            Exponent  Coefficients 
       -------------- ---------------------------------------------------------
  1 S  2.05130280E+01  0.234714
  1 S  9.77679200E+00 -0.877527
  1 S  4.57359900E+00 -0.341636
 
  2 S  1.94991000E+00  1.000000
 
  3 S  7.66488000E-01  1.000000
 
  4 S  1.00798000E-01  1.000000
 
  5 S  3.75160000E-02  1.000000
 
  6 S  1.00000000E-02  1.000000
 
  7 P  6.31253260E+01  0.027147
  7 P  1.16568550E+01 -1.011875
 
  8 P  5.17866100E+00  0.215168
  8 P  2.03553200E+00  0.825095
 
  9 P  7.08818000E-01  1.000000
 
 10 P  1.10168000E-01  1.000000
 
 11 P  2.94440000E-02  1.000000
 
 12 D  3.36667900E+01  0.036529
 12 D  1.02356950E+01  0.182825
 12 D  3.46648800E+00  0.437069
 12 D  1.12729600E+00  0.575178
 
 13 D  3.08247000E-01  1.000000
 
 14 D  8.00000000E-02  1.000000
 
 15 F  2.00000000E+00  1.000000
 
  B (Boron)
  ---------
            Exponent  Coefficients 
       -------------- ---------------------------------------------------------
  1 S  2.85889000E+03  0.002154
  1 S  4.28140000E+02  0.016582
  1 S  9.75282000E+01  0.082187
  1 S  2.79693000E+01  0.276618
  1 S  8.21577000E+00  0.629316
  1 S  1.11278000E+00  0.173770
 
  2 S  1.32415000E+01  0.117443
  2 S  3.00166000E+00  0.918002
  2 S  9.12856000E-01 -0.002651
 
  3 P  1.32415000E+01  0.041810
  3 P  3.00166000E+00  0.236575
  3 P  9.12856000E-01  0.816214
 
  4 S  3.15454000E-01  1.000000
 
  5 P  3.15454000E-01  1.000000
 
  6 S  9.88563000E-02  1.000000
 
  7 P  9.88563000E-02  1.000000
 
  8 S  3.15000000E-02  1.000000
 
  9 P  3.15000000E-02  1.000000
 
 10 D  4.01000000E-01  1.000000
 
  C (Carbon)
  ----------
            Exponent  Coefficients 
       -------------- ---------------------------------------------------------
  1 S  4.56324000E+03  0.001967
  1 S  6.82024000E+02  0.015231
  1 S  1.54973000E+02  0.076127
  1 S  4.44553000E+01  0.260801
  1 S  1.30290000E+01  0.616462
  1 S  1.82773000E+00  0.221006
 
  2 S  2.09642000E+01  0.114660
  2 S  4.80331000E+00  0.919999
  2 S  1.45933000E+00 -0.003031
 
  3 P  2.09642000E+01  0.040249
  3 P  4.80331000E+00  0.237594
  3 P  1.45933000E+00  0.815854
 
  4 S  4.83456000E-01  1.000000
 
  5 P  4.83456000E-01  1.000000
 
  6 S  1.45585000E-01  1.000000
 
  7 P  1.45585000E-01  1.000000
 
  8 S  4.38000000E-02  1.000000
 
  9 P  4.38000000E-02  1.000000
 
 10 D  6.26000000E-01  1.000000
 
  O (Oxygen)
  ----------
            Exponent  Coefficients 
       -------------- ---------------------------------------------------------
  1 S  8.58850000E+03  0.001895
  1 S  1.29723000E+03  0.014386
  1 S  2.99296000E+02  0.070732
  1 S  8.73771000E+01  0.240001
  1 S  2.56789000E+01  0.594797
  1 S  3.74004000E+00  0.280802
 
  2 S  4.21175000E+01  0.113889
  2 S  9.62837000E+00  0.920811
  2 S  2.85332000E+00 -0.003274
 
  3 P  4.21175000E+01  0.036511
  3 P  9.62837000E+00  0.237153
  3 P  2.85332000E+00  0.819702
 
  4 S  9.05661000E-01  1.000000
 
  5 P  9.05661000E-01  1.000000
 
  6 S  2.55611000E-01  1.000000
 
  7 P  2.55611000E-01  1.000000
 
  8 S  8.45000000E-02  1.000000
 
  9 P  8.45000000E-02  1.000000
 
 10 D  1.29200000E+00  1.000000
 
  N (Nitrogen)
  ------------
            Exponent  Coefficients 
       -------------- ---------------------------------------------------------
  1 S  6.29348000E+03  0.001970
  1 S  9.49044000E+02  0.014961
  1 S  2.18776000E+02  0.073501
  1 S  6.36916000E+01  0.248937
  1 S  1.88282000E+01  0.602460
  1 S  2.72023000E+00  0.256202
 
  2 S  3.06331000E+01  0.111906
  2 S  7.02614000E+00  0.921666
  2 S  2.11205000E+00 -0.002569
 
  3 P  3.06331000E+01  0.038312
  3 P  7.02614000E+00  0.237403
  3 P  2.11205000E+00  0.817592
 
  4 S  6.84009000E-01  1.000000
 
  5 P  6.84009000E-01  1.000000
 
  6 S  2.00878000E-01  1.000000
 
  7 P  2.00878000E-01  1.000000
 
  8 S  6.39000000E-02  1.000000
 
  9 P  6.39000000E-02  1.000000
 
 10 D  9.13000000E-01  1.000000
 
  H (Hydrogen)
  ------------
            Exponent  Coefficients 
       -------------- ---------------------------------------------------------
  1 S  3.38650000E+01  0.025494
  1 S  5.09479000E+00  0.190373
  1 S  1.15879000E+00  0.852161
 
  2 S  3.25840000E-01  1.000000
 
  3 S  1.02741000E-01  1.000000
 


 Summary of "ao basis" -> "" (cartesian)
 ------------------------------------------------------------------------------
       Tag                 Description            Shells   Functions and Types
 ---------------- ------------------------------  ------  ---------------------
 Fe                  Stuttgart RSC 1997 ECP         15       49   6s5p3d1f
 B                          6-311+g*                10       23   5s4p1d
 C                          6-311+g*                10       23   5s4p1d
 O                          6-311+g*                10       23   5s4p1d
 N                          6-311+g*                10       23   5s4p1d
 H                          6-311+g*                 3        3   3s


  library name resolved from: environment
  library file name is: </work/LAS/twindus-lab/nwchem/6.6-intel/data/libraries/>
  

 **** WARNING Zero Coefficient **** on atom "              Fe"
 angular momentum value:-1  standard basis set name: "Stuttgart RSC 1997 ECP"
 input line that generated warning:
  3105: 2      1.000000000            0.000000000
  
 Local ECP potential is zero and ignored
  
                 ECP       "ecp basis" -> "" (cartesian)
                -----
  Fe (Iron) Replaces    10 electrons
  ----------------------------------
          R-exponent    Exponent     Coefficients 
         ------------ ---------------------------------------------------------
  1 U-s      2.00       20.930000     253.749588
  1 U-s      2.00        9.445000      37.922845
 
  2 U-p      2.00       21.760000     161.036812
  2 U-p      2.00        9.178000      27.651298
 
  3 U-d      2.00       25.900000     -24.431276
  3 U-d      2.00        8.835000      -1.434251
 
 ------------------------------------------------------------------------
 scf: no. of closed-shell electrons is not even!                   3
 ------------------------------------------------------------------------
 ------------------------------------------------------------------------
  current input line : 
   172: task scf energy
 ------------------------------------------------------------------------
 ------------------------------------------------------------------------
 There is an error in the input file
 ------------------------------------------------------------------------
 For more information see the NWChem manual at 
 http://www.nwchem-sw.org/index.php/NWChem_Documentation


 For further details see manual section: 
                                                                                
                                                                                
                                                                                
                   
0:0:scf: no. of closed-shell electrons is not even!:: 3
(rank:0 hostname:condo054 pid:27878):ARMCI DASSERT fail. ../../ga-5-4/armci/src/common/armci.c:ARMCI_Error():208 cond:0
Last System Error Message from Task 0:: Inappropriate ioctl for device
application called MPI_Abort(comm=0x84000007, 3) - process 0
In: PMI_Abort(3, application called MPI_Abort(comm=0x84000007, 3) - process 0)
 scf: no. of closed-shell electrons is not even!                   3
 ------------------------------------------------------------------------
 ------------------------------------------------------------------------
  current input line : 
     0: 
 ------------------------------------------------------------------------
 ------------------------------------------------------------------------
 There is an error in the input file
 ------------------------------------------------------------------------
 For more information see the NWChem manual at 
 http://www.nwchem-sw.org/index.php/NWChem_Documentation


 For further details see manual section: 
                                                                                
                                                                                
                                                                                
                   
1:1:scf: no. of closed-shell electrons is not even!:: 3
(rank:1 hostname:condo054 pid:27879):ARMCI DASSERT fail. ../../ga-5-4/armci/src/common/armci.c:ARMCI_Error():208 cond:0
Last System Error Message from Task 1:: Inappropriate ioctl for device
application called MPI_Abort(comm=0x84000004, 3) - process 1
In: PMI_Abort(3, application called MPI_Abort(comm=0x84000004, 3) - process 1)
 scf: no. of closed-shell electrons is not even!                   3
 ------------------------------------------------------------------------
 ------------------------------------------------------------------------
  current input line : 
     0: 
 ------------------------------------------------------------------------
 ------------------------------------------------------------------------
 There is an error in the input file
 ------------------------------------------------------------------------
 For more information see the NWChem manual at 
 http://www.nwchem-sw.org/index.php/NWChem_Documentation


 For further details see manual section: 
                                                                                
                                                                                
                                                                                
                   
2:2:scf: no. of closed-shell electrons is not even!:: 3
(rank:2 hostname:condo054 pid:27880):ARMCI DASSERT fail. ../../ga-5-4/armci/src/common/armci.c:ARMCI_Error():208 cond:0
Last System Error Message from Task 2:: Inappropriate ioctl for device
application called MPI_Abort(comm=0x84000004, 3) - process 2
In: PMI_Abort(3, application called MPI_Abort(comm=0x84000004, 3) - process 2)
 scf: no. of closed-shell electrons is not even!                   3
 ------------------------------------------------------------------------
 ------------------------------------------------------------------------
  current input line : 
     0: 
 ------------------------------------------------------------------------
 ------------------------------------------------------------------------
 There is an error in the input file
 ------------------------------------------------------------------------
 For more information see the NWChem manual at 
 http://www.nwchem-sw.org/index.php/NWChem_Documentation


 For further details see manual section: 
                                                                                
                                                                                
                                                                                
                   
3:3:scf: no. of closed-shell electrons is not even!:: 3
(rank:3 hostname:condo054 pid:27881):ARMCI DASSERT fail. ../../ga-5-4/armci/src/common/armci.c:ARMCI_Error():208 cond:0
Last System Error Message from Task 3:: Inappropriate ioctl for device
application called MPI_Abort(comm=0x84000004, 3) - process 3
In: PMI_Abort(3, application called MPI_Abort(comm=0x84000004, 3) - process 3)
srun: Job step aborted: Waiting up to 32 seconds for job step to finish.
slurmstepd: error: *** STEP 289089.0 ON condo054 CANCELLED AT 2018-05-17T12:30:29 ***
srun: error: condo054: tasks 0-3: Exited with exit code 3
